TITLE="Graphics"
VARIABLES= "x", "rho", "v_phi", "v_z", "p", "e", "H_phi", "H_z"
ZONE T="zone", I=1001, F=POINT
0 1 0 0.1 0.5 0.746269 1 0
0.001 0.966467 0 0.14323 0.472316 0.73143 0.966467 0
0.002 0.939574 0 0.179006 0.450573 0.719147 0.939574 0
0.003 0.91783 0 0.208728 0.433294 0.708949 0.91783 0
0.004 0.900126 0 0.233507 0.419427 0.700461 0.900126 0
0.005 0.88563 0 0.254232 0.408208 0.693381 0.88563 0
0.006 0.8737 0 0.271618 0.399066 0.687462 0.8737 0
0.007 0.86384 0 0.286248 0.391574 0.682505 0.86384 0
0.008 0.85566 0 0.298596 0.385401 0.678345 0.85566 0
0.009 0.848852 0 0.30905 0.380294 0.674849 0.848852 0
0.01 0.843168 0 0.317929 0.37605 0.671905 0.843168 0
0.011 0.838408 0 0.325498 0.372512 0.669421 0.838408 0
0.012 0.834412 0 0.331973 0.369552 0.66732 0.834412 0
0.013 0.831048 0 0.337535 0.367067 0.665541 0.831048 0
0.014 0.828208 0 0.342335 0.364975 0.66403 0.828208 0
0.015 0.825805 0 0.346498 0.363208 0.662744 0.825805 0
0.016 0.823764 0 0.350127 0.36171 0.661646 0.823764 0
0.017 0.822026 0 0.353309 0.360437 0.660705 0.822026 0
0.018 0.820541 0 0.356117 0.35935 0.659897 0.820541 0
0.019 0.819267 0 0.358612 0.358419 0.659199 0.819267 0
0.02 0.81817 0 0.360844 0.357618 0.658594 0.81817 0
0.021 0.817221 0 0.362855 0.356925 0.658067 0.817221 0
0.022 0.816396 0 0.364682 0.356324 0.657605 0.816396 0
0.023 0.815675 0 0.366354 0.355798 0.657199 0.815675 0
0.024 0.815041 0 0.367896 0.355336 0.656838 0.815041 0
0.025 0.814479 0 0.369329 0.354927 0.656516 0.814479 0
0.026 0.813979 0 0.370672 0.354564 0.656226 0.813979 0
0.027 0.81353 0 0.371937 0.354237 0.655964 0.81353 0
0.028 0.813124 0 0.373139 0.353942 0.655725 0.813124 0
0.029 0.812754 0 0.374288 0.353673 0.655505 0.812754 0
0.03 0.812415 0 0.375392 0.353426 0.6553 0.812415 0
0.031 0.8121 0 0.376458 0.353198 0.65511 0.8121 0
0.032 0.811807 0 0.377494 0.352985 0.65493 0.811807 0
0.033 0.811531 0 0.378504 0.352785 0.65476 0.811531 0
0.034 0.81127 0 0.379492 0.352595 0.654598 0.81127 0
0.035 0.811022 0 0.380463 0.352415 0.654443 0.811022 0
0.036 0.810783 0 0.381419 0.352242 0.654292 0.810783 0
0.037 0.810553 0 0.382364 0.352075 0.654147 0.810553 0
0.038 0.810331 0 0.383299 0.351914 0.654005 0.810331 0
0.039 0.810114 0 0.384226 0.351756 0.653866 0.810114 0
0.04 0.809901 0 0.385146 0.351602 0.65373 0.809901 0
0.041 0.809693 0 0.386062 0.351451 0.653596 0.809693 0
0.042 0.809487 0 0.386974 0.351302 0.653463 0.809487 0
0.043 0.809284 0 0.387883 0.351155 0.653332 0.809284 0
0.044 0.809083 0 0.388791 0.351009 0.653202 0.809083 0
0.045 0.808884 0 0.389697 0.350865 0.653072 0.808884 0
0.046 0.808686 0 0.390602 0.350721 0.652944 0.808686 0
0.047 0.808488 0 0.391507 0.350578 0.652815 0.808488 0
0.048 0.808291 0 0.392412 0.350436 0.652687 0.808291 0
0.049 0.808094 0 0.393317 0.350293 0.652559 0.808094 0
0.05 0.807898 0 0.394223 0.350151 0.652432 0.807898 0
0.051 0.807701 0 0.39513 0.350009 0.652304 0.807701 0
0.052 0.807505 0 0.396039 0.349866 0.652176 0.807505 0
0.053 0.807307 0 0.396948 0.349724 0.652048 0.807307 0
0.054 0.80711 0 0.39786 0.349581 0.65192 0.80711 0
0.055 0.806912 0 0.398773 0.349438 0.651791 0.806912 0
0.056 0.806713 0 0.399687 0.349294 0.651662 0.806713 0
0.057 0.806514 0 0.400604 0.34915 0.651533 0.806514 0
0.058 0.806314 0 0.401523 0.349006 0.651403 0.806314 0
0.059 0.806114 0 0.402443 0.348861 0.651274 0.806114 0
0.06 0.805913 0 0.403366 0.348715 0.651143 0.805913 0
0.061 0.80571 0 0.404291 0.348569 0.651012 0.80571 0
0.062 0.805507 0 0.405217 0.348422 0.650881 0.805507 0
0.063 0.805304 0 0.406147 0.348275 0.65075 0.805304 0
0.064 0.805099 0 0.407078 0.348127 0.650618 0.805099 0
0.065 0.804893 0 0.408012 0.347979 0.650485 0.804893 0
0.066 0.804687 0 0.408948 0.34783 0.650352 0.804687 0
0.067 0.804479 0 0.409886 0.34768 0.650218 0.804479 0
0.068 0.804271 0 0.410826 0.34753 0.650084 0.804271 0
0.069 0.804062 0 0.411769 0.347379 0.64995 0.804062 0
0.07 0.803851 0 0.412715 0.347227 0.649814 0.803851 0
0.071 0.80364 0 0.413662 0.347075 0.649679 0.80364 0
0.072 0.803428 0 0.414612 0.346922 0.649543 0.803428 0
0.073 0.803215 0 0.415565 0.346768 0.649406 0.803215 0
0.074 0.803 0 0.416519 0.346613 0.649269 0.803 0
0.075 0.802785 0 0.417477 0.346458 0.649131 0.802785 0
0.076 0.802569 0 0.418436 0.346302 0.648993 0.802569 0
0.077 0.802351 0 0.419398 0.346146 0.648854 0.802351 0
0.078 0.802133 0 0.420363 0.345988 0.648714 0.802133 0
0.079 0.801914 0 0.42133 0.34583 0.648575 0.801914 0
0.08 0.801693 0 0.422299 0.345672 0.648434 0.801693 0
0.081 0.801472 0 0.423271 0.345512 0.648293 0.801472 0
0.082 0.801249 0 0.424246 0.345352 0.648151 0.801249 0
0.083 0.801026 0 0.425222 0.345191 0.648009 0.801026 0
0.084 0.800801 0 0.426202 0.345029 0.647866 0.800801 0
0.085 0.800575 0 0.427183 0.344867 0.647723 0.800575 0
0.086 0.800348 0 0.428168 0.344704 0.647579 0.800348 0
0.087 0.800121 0 0.429154 0.34454 0.647435 0.800121 0
0.088 0.799892 0 0.430144 0.344375 0.647289 0.799892 0
0.089 0.799661 0 0.431135 0.34421 0.647144 0.799661 0
0.09 0.79943 0 0.43213 0.344044 0.646998 0.79943 0
0.091 0.799198 0 0.433126 0.343877 0.646851 0.799198 0
0.092 0.798965 0 0.434126 0.343709 0.646703 0.798965 0
0.093 0.79873 0 0.435127 0.343541 0.646555 0.79873 0
0.094 0.798495 0 0.436132 0.343371 0.646407 0.798495 0
0.095 0.798258 0 0.437138 0.343201 0.646257 0.798258 0
0.096 0.79802 0 0.438148 0.343031 0.646107 0.79802 0
0.097 0.797781 0 0.43916 0.342859 0.645957 0.797781 0
0.098 0.797541 0 0.440174 0.342687 0.645806 0.797541 0
0.099 0.7973 0 0.441191 0.342514 0.645654 0.7973 0
0.1 0.797057 0 0.44221 0.34234 0.645502 0.797057 0
0.101 0.796814 0 0.443233 0.342165 0.645349 0.796814 0
0.102 0.796569 0 0.444257 0.34199 0.645196 0.796569 0
0.103 0.796323 0 0.445284 0.341813 0.645042 0.796323 0
0.104 0.796076 0 0.446314 0.341636 0.644887 0.796076 0
0.105 0.795828 0 0.447346 0.341458 0.644731 0.795828 0
0.106 0.795578 0 0.448381 0.34128 0.644575 0.795578 0
0.107 0.795328 0 0.449419 0.3411 0.644419 0.795328 0
0.108 0.795076 0 0.450459 0.34092 0.644261 0.795076 0
0.109 0.794823 0 0.451501 0.340739 0.644103 0.794823 0
0.11 0.794569 0 0.452546 0.340557 0.643945 0.794569 0
0.111 0.794313 0 0.453594 0.340374 0.643786 0.794313 0
0.112 0.794057 0 0.454645 0.34019 0.643626 0.794057 0
0.113 0.793799 0 0.455698 0.340006 0.643465 0.793799 0
0.114 0.79354 0 0.456753 0.339821 0.643304 0.79354 0
0.115 0.79328 0 0.457811 0.339635 0.643142 0.79328 0
0.116 0.793018 0 0.458872 0.339448 0.64298 0.793018 0
0.117 0.792755 0 0.459935 0.33926 0.642816 0.792755 0
0.118 0.792492 0 0.461001 0.339071 0.642653 0.792492 0
0.119 0.792226 0 0.46207 0.338882 0.642488 0.792226 0
0.12 0.79196 0 0.463141 0.338692 0.642323 0.79196 0
0.121 0.791692 0 0.464215 0.3385 0.642157 0.791692 0
0.122 0.791423 0 0.465292 0.338308 0.641991 0.791423 0
0.123 0.791153 0 0.466371 0.338115 0.641823 0.791153 0
0.124 0.790882 0 0.467453 0.337922 0.641656 0.790882 0
0.125 0.790609 0 0.468537 0.337727 0.641487 0.790609 0
0.126 0.790335 0 0.469624 0.337532 0.641318 0.790335 0
0.127 0.790059 0 0.470714 0.337335 0.641148 0.790059 0
0.128 0.789783 0 0.471806 0.337138 0.640977 0.789783 0
0.129 0.789505 0 0.472901 0.33694 0.640806 0.789505 0
0.13 0.789226 0 0.473999 0.336741 0.640634 0.789226 0
0.131 0.788945 0 0.475099 0.336541 0.640461 0.788945 0
0.132 0.788663 0 0.476202 0.33634 0.640287 0.788663 0
0.133 0.78838 0 0.477308 0.336139 0.640113 0.78838 0
0.134 0.788096 0 0.478417 0.335936 0.639938 0.788096 0
0.135 0.78781 0 0.479528 0.335733 0.639763 0.78781 0
0.136 0.787523 0 0.480641 0.335529 0.639586 0.787523 0
0.137 0.787234 0 0.481758 0.335323 0.639409 0.787234 0
0.138 0.786944 0 0.482877 0.335117 0.639232 0.786944 0
0.139 0.786653 0 0.483999 0.33491 0.639053 0.786653 0
0.14 0.786361 0 0.485123 0.334702 0.638874 0.786361 0
0.141 0.786067 0 0.48625 0.334493 0.638694 0.786067 0
0.142 0.785772 0 0.48738 0.334283 0.638513 0.785772 0
0.143 0.785475 0 0.488512 0.334073 0.638332 0.785475 0
0.144 0.785177 0 0.489648 0.333861 0.638149 0.785177 0
0.145 0.784878 0 0.490786 0.333649 0.637967 0.784878 0
0.146 0.784577 0 0.491926 0.333435 0.637783 0.784577 0
0.147 0.784275 0 0.49307 0.333221 0.637598 0.784275 0
0.148 0.783971 0 0.494216 0.333005 0.637413 0.783971 0
0.149 0.783666 0 0.495365 0.332789 0.637227 0.783666 0
0.15 0.78336 0 0.496516 0.332572 0.63704 0.78336 0
0.151 0.783052 0 0.49767 0.332354 0.636853 0.783052 0
0.152 0.782743 0 0.498827 0.332134 0.636665 0.782743 0
0.153 0.782432 0 0.499987 0.331914 0.636476 0.782432 0
0.154 0.78212 0 0.501149 0.331693 0.636286 0.78212 0
0.155 0.781807 0 0.502314 0.331471 0.636095 0.781807 0
0.156 0.781492 0 0.503482 0.331248 0.635904 0.781492 0
0.157 0.781175 0 0.504653 0.331024 0.635712 0.781175 0
0.158 0.780858 0 0.505826 0.3308 0.635519 0.780858 0
0.159 0.780538 0 0.507002 0.330574 0.635325 0.780538 0
0.16 0.780217 0 0.508181 0.330347 0.635131 0.780217 0
0.161 0.779895 0 0.509363 0.330119 0.634935 0.779895 0
0.162 0.779572 0 0.510547 0.32989 0.634739 0.779572 0
0.163 0.779246 0 0.511734 0.32966 0.634542 0.779246 0
0.164 0.77892 0 0.512924 0.32943 0.634344 0.77892 0
0.165 0.778592 0 0.514117 0.329198 0.634146 0.778592 0
0.166 0.778262 0 0.515312 0.328965 0.633946 0.778262 0
0.167 0.777931 0 0.51651 0.328732 0.633746 0.777931 0
0.168 0.777598 0 0.517711 0.328497 0.633545 0.777598 0
0.169 0.777264 0 0.518914 0.328261 0.633343 0.777264 0
0.17 0.776928 0 0.520121 0.328024 0.633141 0.776928 0
0.171 0.776591 0 0.52133 0.327787 0.632937 0.776591 0
0.172 0.776252 0 0.522542 0.327548 0.632733 0.776252 0
0.173 0.775912 0 0.523756 0.327308 0.632528 0.775912 0
0.174 0.77557 0 0.524974 0.327067 0.632322 0.77557 0
0.175 0.775227 0 0.526194 0.326826 0.632115 0.775227 0
0.176 0.774882 0 0.527417 0.326583 0.631907 0.774882 0
0.177 0.774535 0 0.528643 0.326339 0.631699 0.774535 0
0.178 0.774187 0 0.529871 0.326094 0.631489 0.774187 0
0.179 0.773838 0 0.531102 0.325848 0.631279 0.773838 0
0.18 0.773487 0 0.532337 0.325601 0.631068 0.773487 0
0.181 0.773134 0 0.533573 0.325353 0.630856 0.773134 0
0.182 0.77278 0 0.534813 0.325104 0.630643 0.77278 0
0.183 0.772424 0 0.536055 0.324854 0.63043 0.772424 0
0.184 0.772066 0 0.537301 0.324603 0.630215 0.772066 0
0.185 0.771707 0 0.538549 0.324351 0.63 0.771707 0
0.186 0.771346 0 0.539799 0.324098 0.629783 0.771346 0
0.187 0.770984 0 0.541053 0.323844 0.629566 0.770984 0
0.188 0.77062 0 0.542309 0.323589 0.629348 0.77062 0
0.189 0.770254 0 0.543568 0.323332 0.629129 0.770254 0
0.19 0.769887 0 0.54483 0.323075 0.628909 0.769887 0
0.191 0.769518 0 0.546095 0.322816 0.628688 0.769518 0
0.192 0.769148 0 0.547362 0.322557 0.628467 0.769148 0
0.193 0.768776 0 0.548633 0.322296 0.628244 0.768776 0
0.194 0.768402 0 0.549906 0.322035 0.628021 0.768402 0
0.195 0.768027 0 0.551182 0.321772 0.627796 0.768027 0
0.196 0.76765 0 0.55246 0.321508 0.627571 0.76765 0
0.197 0.767271 0 0.553742 0.321243 0.627345 0.767271 0
0.198 0.76689 0 0.555026 0.320977 0.627118 0.76689 0
0.199 0.766508 0 0.556313 0.32071 0.62689 0.766508 0
0.2 0.766124 0 0.557603 0.320442 0.626661 0.766124 0
0.201 0.765739 0 0.558895 0.320173 0.626431 0.765739 0
0.202 0.765352 0 0.560191 0.319903 0.6262 0.765352 0
0.203 0.764963 0 0.561489 0.319631 0.625968 0.764963 0
0.204 0.764572 0 0.56279 0.319359 0.625736 0.764572 0
0.205 0.76418 0 0.564094 0.319085 0.625502 0.76418 0
0.206 0.763786 0 0.5654 0.318811 0.625268 0.763786 0
0.207 0.763391 0 0.566709 0.318535 0.625032 0.763391 0
0.208 0.762993 0 0.568022 0.318258 0.624796 0.762993 0
0.209 0.762594 0 0.569336 0.31798 0.624558 0.762594 0
0.21 0.762193 0 0.570654 0.317701 0.62432 0.762193 0
0.211 0.761791 0 0.571975 0.317421 0.62408 0.761791 0
0.212 0.761386 0 0.573298 0.317139 0.62384 0.761386 0
0.213 0.76098 0 0.574624 0.316857 0.623599 0.76098 0
0.214 0.760572 0 0.575953 0.316573 0.623357 0.760572 0
0.215 0.760163 0 0.577285 0.316289 0.623113 0.760163 0
0.216 0.759751 0 0.578619 0.316003 0.622869 0.759751 0
0.217 0.759338 0 0.579956 0.315716 0.622624 0.759338 0
0.218 0.758923 0 0.581296 0.315428 0.622378 0.758923 0
0.219 0.758506 0 0.582639 0.315139 0.622131 0.758506 0
0.22 0.758088 0 0.583985 0.314848 0.621883 0.758088 0
0.221 0.757667 0 0.585333 0.314557 0.621634 0.757667 0
0.222 0.757245 0 0.586684 0.314264 0.621383 0.757245 0
0.223 0.756821 0 0.588038 0.313971 0.621132 0.756821 0
0.224 0.756396 0 0.589395 0.313676 0.62088 0.756396 0
0.225 0.755968 0 0.590754 0.31338 0.620627 0.755968 0
0.226 0.755539 0 0.592117 0.313083 0.620373 0.755539 0
0.227 0.755108 0 0.593482 0.312784 0.620118 0.755108 0
0.228 0.754675 0 0.59485 0.312485 0.619862 0.754675 0
0.229 0.75424 0 0.59622 0.312184 0.619605 0.75424 0
0.23 0.753803 0 0.597594 0.311882 0.619346 0.753803 0
0.231 0.753365 0 0.59897 0.311579 0.619087 0.753365 0
0.232 0.752924 0 0.600349 0.311275 0.618827 0.752924 0
0.233 0.752482 0 0.60173 0.31097 0.618566 0.752482 0
0.234 0.752038 0 0.603115 0.310664 0.618303 0.752038 0
0.235 0.751592 0 0.604502 0.310356 0.61804 0.751592 0
0.236 0.751144 0 0.605892 0.310047 0.617776 0.751144 0
0.237 0.750695 0 0.607284 0.309738 0.61751 0.750695 0
0.238 0.750243 0 0.60868 0.309427 0.617244 0.750243 0
0.239 0.74979 0 0.610078 0.309114 0.616976 0.74979 0
0.24 0.749335 0 0.611479 0.308801 0.616708 0.749335 0
0.241 0.748877 0 0.612883 0.308486 0.616438 0.748877 0
0.242 0.748418 0 0.614289 0.308171 0.616167 0.748418 0
0.243 0.747957 0 0.615698 0.307854 0.615896 0.747957 0
0.244 0.747494 0 0.61711 0.307536 0.615623 0.747494 0
0.245 0.74703 0 0.618525 0.307216 0.615349 0.74703 0
0.246 0.746563 0 0.619942 0.306896 0.615074 0.746563 0
0.247 0.746094 0 0.621362 0.306574 0.614798 0.746094 0
0.248 0.745624 0 0.622785 0.306251 0.614521 0.745624 0
0.249 0.745151 0 0.624211 0.305927 0.614243 0.745151 0
0.25 0.744677 0 0.625639 0.305602 0.613963 0.744677 0
0.251 0.744201 0 0.62707 0.305276 0.613683 0.744201 0
0.252 0.743722 0 0.628504 0.304948 0.613402 0.743722 0
0.253 0.743242 0 0.62994 0.304619 0.613119 0.743242 0
0.254 0.74276 0 0.631379 0.30429 0.612836 0.74276 0
0.255 0.742276 0 0.632821 0.303958 0.612551 0.742276 0
0.256 0.74179 0 0.634265 0.303626 0.612265 0.74179 0
0.257 0.741302 0 0.635713 0.303293 0.611978 0.741302 0
0.258 0.740812 0 0.637162 0.302958 0.61169 0.740812 0
0.259 0.74032 0 0.638615 0.302622 0.611401 0.74032 0
0.26 0.739826 0 0.64007 0.302285 0.611111 0.739826 0
0.261 0.73933 0 0.641528 0.301946 0.610819 0.73933 0
0.262 0.738832 0 0.642989 0.301607 0.610527 0.738832 0
0.263 0.738332 0 0.644452 0.301266 0.610233 0.738332 0
0.264 0.73783 0 0.645918 0.300924 0.609939 0.73783 0
0.265 0.737326 0 0.647387 0.300581 0.609643 0.737326 0
0.266 0.736821 0 0.648858 0.300237 0.609346 0.736821 0
0.267 0.736313 0 0.650332 0.299891 0.609048 0.736313 0
0.268 0.735803 0 0.651808 0.299545 0.608748 0.735803 0
0.269 0.735291 0 0.653287 0.299197 0.608448 0.735291 0
0.27 0.734777 0 0.654769 0.298848 0.608146 0.734777 0
0.271 0.734261 0 0.656254 0.298497 0.607844 0.734261 0
0.272 0.733743 0 0.657741 0.298146 0.60754 0.733743 0
0.273 0.733223 0 0.65923 0.297793 0.607235 0.733223 0
0.274 0.732701 0 0.660723 0.297439 0.606929 0.732701 0
0.275 0.732177 0 0.662218 0.297084 0.606622 0.732177 0
0.276 0.731651 0 0.663715 0.296728 0.606313 0.731651 0
0.277 0.731123 0 0.665215 0.29637 0.606004 0.731123 0
0.278 0.730593 0 0.666718 0.296011 0.605693 0.730593 0
0.279 0.730061 0 0.668223 0.295651 0.605381 0.730061 0
0.28 0.729527 0 0.669731 0.29529 0.605068 0.729527 0
0.281 0.72899 0 0.671242 0.294928 0.604754 0.72899 0
0.282 0.728452 0 0.672755 0.294564 0.604438 0.728452 0
0.283 0.727912 0 0.67427 0.294199 0.604122 0.727912 0
0.284 0.727369 0 0.675789 0.293833 0.603804 0.727369 0
0.285 0.726825 0 0.677309 0.293466 0.603485 0.726825 0
0.286 0.726278 0 0.678833 0.293097 0.603165 0.726278 0
0.287 0.725729 0 0.680358 0.292728 0.602843 0.725729 0
0.288 0.725179 0 0.681887 0.292357 0.602521 0.725179 0
0.289 0.724626 0 0.683418 0.291985 0.602197 0.724626 0
0.29 0.724071 0 0.684951 0.291611 0.601872 0.724071 0
0.291 0.723514 0 0.686487 0.291237 0.601546 0.723514 0
0.292 0.722955 0 0.688025 0.290861 0.601219 0.722955 0
0.293 0.722394 0 0.689566 0.290484 0.600891 0.722394 0
0.294 0.721831 0 0.69111 0.290106 0.600561 0.721831 0
0.295 0.721265 0 0.692655 0.289727 0.60023 0.721265 0
0.296 0.720698 0 0.694204 0.289346 0.599898 0.720698 0
0.297 0.720129 0 0.695755 0.288965 0.599565 0.720129 0
0.298 0.719557 0 0.697308 0.288582 0.59923 0.719557 0
0.299 0.718983 0 0.698864 0.288198 0.598895 0.718983 0
0.3 0.718407 0 0.700422 0.287812 0.598558 0.718407 0
0.301 0.71783 0 0.701982 0.287426 0.598219 0.71783 0
0.302 0.71725 0 0.703546 0.287038 0.59788 0.71725 0
0.303 0.716667 0 0.705111 0.286649 0.59754 0.716667 0
0.304 0.716083 0 0.706679 0.286259 0.597198 0.716083 0
0.305 0.715497 0 0.708249 0.285868 0.596855 0.715497 0
0.306 0.714908 0 0.709822 0.285475 0.59651 0.714908 0
0.307 0.714318 0 0.711397 0.285081 0.596165 0.714318 0
0.308 0.713725 0 0.712974 0.284686 0.595818 0.713725 0
0.309 0.71313 0 0.714554 0.28429 0.59547 0.71313 0
0.31 0.712533 0 0.716137 0.283893 0.595121 0.712533 0
0.311 0.711934 0 0.717721 0.283494 0.594771 0.711934 0
0.312 0.711333 0 0.719308 0.283095 0.594419 0.711333 0
0.313 0.71073 0 0.720897 0.282694 0.594066 0.71073 0
0.314 0.710124 0 0.722489 0.282292 0.593712 0.710124 0
0.315 0.709516 0 0.724083 0.281888 0.593357 0.709516 0
0.316 0.708907 0 0.725679 0.281484 0.593 0.708907 0
0.317 0.708295 0 0.727278 0.281078 0.592642 0.708295 0
0.318 0.707681 0 0.728879 0.280672 0.592283 0.707681 0
0.319 0.707065 0 0.730482 0.280264 0.591923 0.707065 0
0.32 0.706446 0 0.732087 0.279855 0.591561 0.706446 0
0.321 0.705826 0 0.733695 0.279444 0.591198 0.705826 0
0.322 0.705203 0 0.735305 0.279033 0.590834 0.705203 0
0.323 0.704579 0 0.736917 0.27862 0.590469 0.704579 0
0.324 0.703952 0 0.738531 0.278206 0.590102 0.703952 0
0.325 0.703323 0 0.740148 0.277791 0.589734 0.703323 0
0.326 0.702692 0 0.741767 0.277375 0.589365 0.702692 0
0.327 0.702058 0 0.743388 0.276958 0.588995 0.702058 0
0.328 0.701423 0 0.745011 0.276539 0.588623 0.701423 0
0.329 0.700785 0 0.746636 0.27612 0.58825 0.700785 0
0.33 0.700146 0 0.748264 0.275699 0.587876 0.700146 0
0.331 0.699504 0 0.749894 0.275277 0.5875 0.699504 0
0.332 0.69886 0 0.751526 0.274854 0.587124 0.69886 0
0.333 0.698214 0 0.75316 0.274429 0.586746 0.698214 0
0.334 0.697565 0 0.754796 0.274004 0.586366 0.697565 0
0.335 0.696915 0 0.756434 0.273577 0.585986 0.696915 0
0.336 0.696262 0 0.758075 0.27315 0.585604 0.696262 0
0.337 0.695608 0 0.759717 0.272721 0.585221 0.695608 0
0.338 0.694951 0 0.761362 0.272291 0.584837 0.694951 0
0.339 0.694292 0 0.763009 0.27186 0.584451 0.694292 0
0.34 0.693631 0 0.764658 0.271428 0.584064 0.693631 0
0.341 0.692967 0 0.766308 0.270994 0.583676 0.692967 0
0.342 0.692302 0 0.767961 0.27056 0.583286 0.692302 0
0.343 0.691634 0 0.769616 0.270124 0.582895 0.691634 0
0.344 0.690964 0 0.771273 0.269688 0.582503 0.690964 0
0.345 0.690293 0 0.772932 0.26925 0.58211 0.690293 0
0.346 0.689619 0 0.774593 0.268811 0.581715 0.689619 0
0.347 0.688942 0 0.776256 0.268371 0.58132 0.688942 0
0.348 0.688264 0 0.777921 0.26793 0.580922 0.688264 0
0.349 0.687584 0 0.779588 0.267488 0.580524 0.687584 0
0.35 0.686901 0 0.781257 0.267044 0.580124 0.686901 0
0.351 0.686216 0 0.782927 0.2666 0.579723 0.686216 0
0.352 0.685529 0 0.7846 0.266154 0.579321 0.685529 0
0.353 0.68484 0 0.786275 0.265708 0.578917 0.68484 0
0.354 0.684149 0 0.787951 0.26526 0.578512 0.684149 0
0.355 0.683456 0 0.789629 0.264811 0.578106 0.683456 0
0.356 0.682761 0 0.79131 0.264362 0.577699 0.682761 0
0.357 0.682063 0 0.792992 0.263911 0.57729 0.682063 0
0.358 0.681363 0 0.794676 0.263459 0.57688 0.681363 0
0.359 0.680662 0 0.796361 0.263006 0.576468 0.680662 0
0.36 0.679958 0 0.798049 0.262552 0.576056 0.679958 0
0.361 0.679252 0 0.799738 0.262097 0.575642 0.679252 0
0.362 0.678544 0 0.80143 0.26164 0.575227 0.678544 0
0.363 0.677833 0 0.803123 0.261183 0.57481 0.677833 0
0.364 0.677121 0 0.804817 0.260725 0.574392 0.677121 0
0.365 0.676406 0 0.806514 0.260266 0.573973 0.676406 0
0.366 0.67569 0 0.808212 0.259805 0.573553 0.67569 0
0.367 0.674971 0 0.809912 0.259344 0.573131 0.674971 0
0.368 0.67425 0 0.811614 0.258882 0.572708 0.67425 0
0.369 0.673527 0 0.813317 0.258418 0.572284 0.673527 0
0.37 0.672802 0 0.815022 0.257954 0.571859 0.672802 0
0.371 0.672075 0 0.816729 0.257489 0.571432 0.672075 0
0.372 0.671346 0 0.818437 0.257022 0.571004 0.671346 0
0.373 0.670615 0 0.820147 0.256555 0.570574 0.670615 0
0.374 0.669881 0 0.821859 0.256086 0.570144 0.669881 0
0.375 0.669146 0 0.823572 0.255617 0.569712 0.669146 0
0.376 0.668408 0 0.825287 0.255147 0.569279 0.668408 0
0.377 0.667669 0 0.827003 0.254675 0.568844 0.667669 0
0.378 0.666927 0 0.828721 0.254203 0.568408 0.666927 0
0.379 0.666183 0 0.830441 0.25373 0.567971 0.666183 0
0.38 0.665438 0 0.832162 0.253256 0.567533 0.665438 0
0.381 0.66469 0 0.833884 0.252781 0.567093 0.66469 0
0.382 0.66394 0 0.835609 0.252304 0.566652 0.66394 0
0.383 0.663188 0 0.837334 0.251827 0.56621 0.663188 0
0.384 0.662434 0 0.839061 0.251349 0.565766 0.662434 0
0.385 0.661678 0 0.84079 0.25087 0.565322 0.661678 0
0.386 0.660919 0 0.84252 0.250391 0.564876 0.660919 0
0.387 0.660159 0 0.844251 0.24991 0.564428 0.660159 0
0.388 0.659397 0 0.845984 0.249428 0.56398 0.659397 0
0.389 0.658633 0 0.847718 0.248946 0.56353 0.658633 0
0.39 0.657867 0 0.849454 0.248462 0.563079 0.657867 0
0.391 0.657098 0 0.851191 0.247978 0.562626 0.657098 0
0.392 0.656328 0 0.852929 0.247492 0.562172 0.656328 0
0.393 0.655556 0 0.854669 0.247006 0.561717 0.655556 0
0.394 0.654781 0 0.85641 0.246519 0.561261 0.654781 0
0.395 0.654005 0 0.858153 0.246031 0.560804 0.654005 0
0.396 0.653227 0 0.859896 0.245543 0.560345 0.653227 0
0.397 0.652446 0 0.861641 0.245053 0.559885 0.652446 0
0.398 0.651664 0 0.863387 0.244562 0.559423 0.651664 0
0.399 0.65088 0 0.865135 0.244071 0.558961 0.65088 0
0.4 0.650093 0 0.866883 0.243579 0.558497 0.650093 0
0.401 0.649305 0 0.868633 0.243086 0.558032 0.649305 0
0.402 0.648515 0 0.870384 0.242592 0.557565 0.648515 0
0.403 0.647723 0 0.872136 0.242097 0.557098 0.647723 0
0.404 0.646929 0 0.87389 0.241602 0.556629 0.646929 0
0.405 0.646133 0 0.875644 0.241106 0.556159 0.646133 0
0.406 0.645335 0 0.8774 0.240609 0.555687 0.645335 0
0.407 0.644535 0 0.879157 0.240111 0.555215 0.644535 0
0.408 0.643733 0 0.880914 0.239612 0.554741 0.643733 0
0.409 0.642929 0 0.882673 0.239113 0.554266 0.642929 0
0.41 0.642124 0 0.884433 0.238612 0.553789 0.642124 0
0.411 0.641316 0 0.886194 0.238111 0.553312 0.641316 0
0.412 0.640506 0 0.887956 0.23761 0.552833 0.640506 0
0.413 0.639695 0 0.889719 0.237107 0.552353 0.639695 0
0.414 0.638882 0 0.891483 0.236604 0.551871 0.638882 0
0.415 0.638067 0 0.893248 0.2361 0.551389 0.638067 0
0.416 0.637249 0 0.895014 0.235595 0.550905 0.637249 0
0.417 0.636431 0 0.896781 0.23509 0.55042 0.636431 0
0.418 0.63561 0 0.898549 0.234584 0.549934 0.63561 0
0.419 0.634787 0 0.900318 0.234077 0.549446 0.634787 0
0.42 0.633963 0 0.902087 0.23357 0.548957 0.633963 0
0.421 0.633136 0 0.903858 0.233061 0.548467 0.633136 0
0.422 0.632308 0 0.905629 0.232553 0.547976 0.632308 0
0.423 0.631478 0 0.907401 0.232043 0.547484 0.631478 0
0.424 0.630646 0 0.909174 0.231533 0.54699 0.630646 0
0.425 0.629813 0 0.910948 0.231022 0.546496 0.629813 0
0.426 0.628977 0 0.912722 0.23051 0.546 0.628977 0
0.427 0.62814 0 0.914498 0.229998 0.545503 0.62814 0
0.428 0.627301 0 0.916274 0.229485 0.545004 0.627301 0
0.429 0.62646 0 0.918051 0.228972 0.544505 0.62646 0
0.43 0.625618 0 0.919828 0.228458 0.544004 0.625618 0
0.431 0.624774 0 0.921606 0.227943 0.543502 0.624774 0
0.432 0.623927 0 0.923385 0.227428 0.542999 0.623927 0
0.433 0.62308 0 0.925164 0.226912 0.542494 0.62308 0
0.434 0.62223 0 0.926945 0.226396 0.541989 0.62223 0
0.435 0.621379 0 0.928725 0.225879 0.541482 0.621379 0
0.436 0.620526 0 0.930507 0.225361 0.540974 0.620526 0
0.437 0.619671 0 0.932289 0.224843 0.540465 0.619671 0
0.438 0.618815 0 0.934071 0.224324 0.539955 0.618815 0
0.439 0.617957 0 0.935854 0.223805 0.539444 0.617957 0
0.44 0.617097 0 0.937638 0.223285 0.538931 0.617097 0
0.441 0.616235 0 0.939422 0.222765 0.538418 0.616235 0
0.442 0.615372 0 0.941206 0.222244 0.537903 0.615372 0
0.443 0.614508 0 0.942991 0.221723 0.537387 0.614508 0
0.444 0.613641 0 0.944777 0.221201 0.53687 0.613641 0
0.445 0.612773 0 0.946562 0.220679 0.536351 0.612773 0
0.446 0.611903 0 0.948349 0.220156 0.535832 0.611903 0
0.447 0.611032 0 0.950135 0.219633 0.535311 0.611032 0
0.448 0.610159 0 0.951923 0.219109 0.53479 0.610159 0
0.449 0.609285 0 0.95371 0.218585 0.534267 0.609285 0
0.45 0.608408 0 0.955498 0.21806 0.533743 0.608408 0
0.451 0.607531 0 0.957286 0.217535 0.533218 0.607531 0
0.452 0.606651 0 0.959074 0.217009 0.532692 0.606651 0
0.453 0.605771 0 0.960863 0.216483 0.532165 0.605771 0
0.454 0.604888 0 0.962652 0.215957 0.531636 0.604888 0
0.455 0.604004 0 0.964441 0.21543 0.531107 0.604004 0
0.456 0.603119 0 0.96623 0.214903 0.530576 0.603119 0
0.457 0.602232 0 0.96802 0.214376 0.530044 0.602232 0
0.458 0.601343 0 0.96981 0.213848 0.529512 0.601343 0
0.459 0.600453 0 0.9716 0.213319 0.528978 0.600453 0
0.46 0.599562 0 0.97339 0.212791 0.528443 0.599562 0
0.461 0.598669 0 0.97518 0.212262 0.527907 0.598669 0
0.462 0.597775 0 0.97697 0.211733 0.52737 0.597775 0
0.463 0.596879 0 0.978761 0.211203 0.526832 0.596879 0
0.464 0.595981 0 0.980551 0.210673 0.526293 0.595981 0
0.465 0.595083 0 0.982342 0.210143 0.525752 0.595083 0
0.466 0.594182 0 0.984132 0.209612 0.525211 0.594182 0
0.467 0.593281 0 0.985923 0.209081 0.524669 0.593281 0
0.468 0.592378 0 0.987714 0.20855 0.524125 0.592378 0
0.469 0.591474 0 0.989504 0.208018 0.523581 0.591474 0
0.47 0.590568 0 0.991295 0.207487 0.523035 0.590568 0
0.471 0.589661 0 0.993085 0.206955 0.522489 0.589661 0
0.472 0.588752 0 0.994875 0.206423 0.521941 0.588752 0
0.473 0.587842 0 0.996666 0.20589 0.521393 0.587842 0
0.474 0.586931 0 0.998456 0.205358 0.520843 0.586931 0
0.475 0.586019 0 1.00025 0.204825 0.520292 0.586019 0
0.476 0.585105 0 1.00204 0.204292 0.519741 0.585105 0
0.477 0.58419 0 1.00383 0.203758 0.519188 0.58419 0
0.478 0.583273 0 1.00562 0.203225 0.518635 0.583273 0
0.479 0.582356 0 1.0074 0.202691 0.51808 0.582356 0
0.48 0.581437 0 1.00919 0.202157 0.517525 0.581437 0
0.481 0.580517 0 1.01098 0.201623 0.516968 0.580517 0
0.482 0.579595 0 1.01277 0.201089 0.516411 0.579595 0
0.483 0.578673 0 1.01456 0.200555 0.515852 0.578673 0
0.484 0.577749 0 1.01635 0.20002 0.515293 0.577749 0
0.485 0.576824 0 1.01813 0.199486 0.514732 0.576824 0
0.486 0.575898 0 1.01992 0.198951 0.514171 0.575898 0
0.487 0.57497 0 1.02171 0.198416 0.513609 0.57497 0
0.488 0.574042 0 1.0235 0.197882 0.513045 0.574042 0
0.489 0.573112 0 1.02528 0.197347 0.512481 0.573112 0
0.49 0.572181 0 1.02707 0.196812 0.511916 0.572181 0
0.491 0.571249 0 1.02885 0.196277 0.51135 0.571249 0
0.492 0.570316 0 1.03064 0.195741 0.510783 0.570316 0
0.493 0.569382 0 1.03242 0.195206 0.510215 0.569382 0
0.494 0.568446 0 1.03421 0.194671 0.509647 0.568446 0
0.495 0.56751 0 1.03599 0.194136 0.509077 0.56751 0
0.496 0.566573 0 1.03777 0.193601 0.508506 0.566573 0
0.497 0.565634 0 1.03955 0.193065 0.507935 0.565634 0
0.498 0.564695 0 1.04134 0.19253 0.507363 0.564695 0
0.499 0.563754 0 1.04312 0.191995 0.50679 0.563754 0
0.5 0.562812 0 1.0449 0.19146 0.506216 0.562812 0
0.501 0.56187 0 1.04668 0.190924 0.505641 0.56187 0
0.502 0.560926 0 1.04846 0.190389 0.505065 0.560926 0
0.503 0.559982 0 1.05023 0.189854 0.504488 0.559982 0
0.504 0.559036 0 1.05201 0.189319 0.503911 0.559036 0
0.505 0.55809 0 1.05379 0.188784 0.503332 0.55809 0
0.506 0.557142 0 1.05557 0.188249 0.502753 0.557142 0
0.507 0.556194 0 1.05734 0.187715 0.502173 0.556194 0
0.508 0.555245 0 1.05912 0.18718 0.501593 0.555245 0
0.509 0.554295 0 1.06089 0.186645 0.501011 0.554295 0
0.51 0.553344 0 1.06266 0.186111 0.500428 0.553344 0
0.511 0.552392 0 1.06444 0.185577 0.499845 0.552392 0
0.512 0.551439 0 1.06621 0.185042 0.499261 0.551439 0
0.513 0.550486 0 1.06798 0.184508 0.498676 0.550486 0
0.514 0.549531 0 1.06975 0.183974 0.498091 0.549531 0
0.515 0.548576 0 1.07152 0.183441 0.497505 0.548576 0
0.516 0.54762 0 1.07329 0.182907 0.496917 0.54762 0
0.517 0.546664 0 1.07505 0.182374 0.49633 0.546664 0
0.518 0.545706 0 1.07682 0.181841 0.495741 0.545706 0
0.519 0.544748 0 1.07858 0.181308 0.495151 0.544748 0
0.52 0.543789 0 1.08035 0.180775 0.494561 0.543789 0
0.521 0.542829 0 1.08211 0.180243 0.49397 0.542829 0
0.522 0.541869 0 1.08387 0.17971 0.493379 0.541869 0
0.523 0.540907 0 1.08564 0.179178 0.492787 0.540907 0
0.524 0.539945 0 1.0874 0.178646 0.492194 0.539945 0
0.525 0.538983 0 1.08916 0.178115 0.4916 0.538983 0
0.526 0.53802 0 1.09091 0.177584 0.491005 0.53802 0
0.527 0.537056 0 1.09267 0.177053 0.49041 0.537056 0
0.528 0.536091 0 1.09443 0.176522 0.489814 0.536091 0
0.529 0.535126 0 1.09618 0.175992 0.489218 0.535126 0
0.53 0.534161 0 1.09794 0.175462 0.488621 0.534161 0
0.531 0.533194 0 1.09969 0.174932 0.488023 0.533194 0
0.532 0.532227 0 1.10144 0.174402 0.487424 0.532227 0
0.533 0.53126 0 1.10319 0.173873 0.486825 0.53126 0
0.534 0.530292 0 1.10494 0.173345 0.486225 0.530292 0
0.535 0.529323 0 1.10669 0.172816 0.485625 0.529323 0
0.536 0.528354 0 1.10843 0.172288 0.485024 0.528354 0
0.537 0.527385 0 1.11018 0.17176 0.484422 0.527385 0
0.538 0.526415 0 1.11192 0.171233 0.48382 0.526415 0
0.539 0.525444 0 1.11366 0.170706 0.483217 0.525444 0
0.54 0.524473 0 1.1154 0.17018 0.482613 0.524473 0
0.541 0.523502 0 1.11714 0.169654 0.482009 0.523502 0
0.542 0.52253 0 1.11888 0.169128 0.481404 0.52253 0
0.543 0.521558 0 1.12062 0.168603 0.480799 0.521558 0
0.544 0.520585 0 1.12235 0.168078 0.480193 0.520585 0
0.545 0.519612 0 1.12409 0.167554 0.479587 0.519612 0
0.546 0.518638 0 1.12582 0.16703 0.47898 0.518638 0
0.547 0.517664 0 1.12755 0.166506 0.478372 0.517664 0
0.548 0.51669 0 1.12928 0.165983 0.477764 0.51669 0
0.549 0.515716 0 1.13101 0.165461 0.477155 0.515716 0
0.55 0.514741 0 1.13274 0.164939 0.476546 0.514741 0
0.551 0.513765 0 1.13446 0.164417 0.475936 0.513765 0