TITLE="Graphics"
VARIABLES= "x", "rho", "v_phi", "v_z", "p", "e", "H_phi", "H_z"
ZONE T="zone", I=101, F=POINT
0 1 0 0.1 0.5 0.746269 1 0
0.01 0.978571 0 0.132014 0.482236 0.734543 0.978571 0
0.02 0.960825 0 0.159981 0.46772 0.724357 0.960825 0
0.03 0.945973 0 0.184702 0.455709 0.71542 0.945973 0
0.04 0.933414 0 0.206817 0.44565 0.707496 0.933414 0
0.05 0.922679 0 0.226841 0.437124 0.700398 0.922679 0
0.06 0.913401 0 0.245191 0.429808 0.693972 0.913401 0
0.07 0.905287 0 0.262207 0.423451 0.688091 0.905287 0
0.08 0.898104 0 0.278166 0.417855 0.682653 0.898104 0
0.09 0.891663 0 0.293293 0.412862 0.677574 0.891663 0
0.1 0.885812 0 0.307777 0.408348 0.672783 0.885812 0
0.11 0.880425 0 0.321772 0.404209 0.668223 0.880425 0
0.12 0.875397 0 0.335405 0.400362 0.663846 0.875397 0
0.13 0.870644 0 0.348784 0.396738 0.65961 0.870644 0
0.14 0.866093 0 0.361996 0.393281 0.655483 0.866093 0
0.15 0.861683 0 0.375116 0.389942 0.651435 0.861683 0
0.16 0.857364 0 0.388205 0.386683 0.647442 0.857364 0
0.17 0.853091 0 0.401316 0.383471 0.643483 0.853091 0
0.18 0.848827 0 0.414491 0.380275 0.639541 0.848827 0
0.19 0.844539 0 0.427767 0.377073 0.6356 0.844539 0
0.2 0.840199 0 0.441174 0.373842 0.631647 0.840199 0
0.21 0.835783 0 0.454737 0.370567 0.627671 0.835783 0
0.22 0.831268 0 0.468478 0.367229 0.623661 0.831268 0
0.23 0.826635 0 0.482412 0.363818 0.619608 0.826635 0
0.24 0.821866 0 0.496554 0.36032 0.615505 0.821866 0
0.25 0.816947 0 0.510914 0.356725 0.611345 0.816947 0
0.26 0.811863 0 0.5255 0.353026 0.607121 0.811863 0
0.27 0.806603 0 0.540317 0.349214 0.602828 0.806603 0
0.28 0.801154 0 0.55537 0.345284 0.598461 0.801154 0
0.29 0.795508 0 0.570659 0.341229 0.594016 0.795508 0
0.3 0.789656 0 0.586185 0.337048 0.589489 0.789656 0
0.31 0.78359 0 0.601944 0.332735 0.584876 0.78359 0
0.32 0.777304 0 0.617934 0.328289 0.580176 0.777304 0
0.33 0.770792 0 0.634149 0.323709 0.575385 0.770792 0
0.34 0.764051 0 0.650581 0.318995 0.570501 0.764051 0
0.35 0.757077 0 0.667224 0.314147 0.565524 0.757077 0
0.36 0.749868 0 0.684067 0.309168 0.560451 0.749868 0
0.37 0.742423 0 0.701099 0.304059 0.555283 0.742423 0
0.38 0.734743 0 0.718309 0.298824 0.550019 0.734743 0
0.39 0.726828 0 0.735684 0.293468 0.544659 0.726828 0
0.4 0.718682 0 0.753209 0.287996 0.539205 0.718682 0
0.41 0.710308 0 0.770869 0.282414 0.533656 0.710308 0
0.42 0.701711 0 0.788649 0.276729 0.528016 0.701711 0
0.43 0.692897 0 0.806532 0.270949 0.522286 0.692897 0
0.44 0.683874 0 0.8245 0.265082 0.516468 0.683874 0
0.45 0.674648 0 0.842536 0.259137 0.510566 0.674648 0
0.46 0.665231 0 0.86062 0.253124 0.504582 0.665231 0
0.47 0.655631 0 0.878735 0.247054 0.498521 0.655631 0
0.48 0.645862 0 0.896861 0.240937 0.492387 0.645862 0
0.49 0.635934 0 0.914978 0.234784 0.486185 0.635934 0
0.5 0.625862 0 0.933069 0.228607 0.479919 0.625862 0
0.51 0.615658 0 0.951113 0.222417 0.473594 0.615658 0
0.52 0.605338 0 0.969091 0.216225 0.467217 0.605338 0
0.53 0.594916 0 0.986985 0.210044 0.460793 0.594916 0
0.54 0.584408 0 1.00478 0.203885 0.454327 0.584408 0
0.55 0.57383 0 1.02245 0.19776 0.447827 0.57383 0
0.56 0.563197 0 1.03998 0.191678 0.441298 0.563197 0
0.57 0.552526 0 1.05737 0.185652 0.434747 0.552526 0
0.58 0.541833 0 1.07458 0.17969 0.428181 0.541833 0
0.59 0.531133 0 1.0916 0.173804 0.421606 0.531133 0
0.6 0.520442 0 1.10843 0.168001 0.415028 0.520442 0
0.61 0.509776 0 1.12505 0.16229 0.408454 0.509776 0
0.62 0.499149 0 1.14144 0.15668 0.40189 0.499149 0
0.63 0.488575 0 1.1576 0.151177 0.395343 0.488575 0
0.64 0.47807 0 1.17351 0.145788 0.388819 0.47807 0
0.65 0.467645 0 1.18917 0.140518 0.382323 0.467645 0
0.66 0.457314 0 1.20457 0.135372 0.375862 0.457314 0
0.67 0.447087 0 1.21969 0.130354 0.369441 0.447087 0
0.68 0.436977 0 1.23454 0.125469 0.363064 0.436977 0
0.69 0.426993 0 1.2491 0.120718 0.356738 0.426993 0
0.7 0.417144 0 1.26338 0.116104 0.350466 0.417144 0
0.71 0.40744 0 1.27737 0.111629 0.344254 0.40744 0
0.72 0.397887 0 1.29106 0.107292 0.338105 0.397887 0
0.73 0.388494 0 1.30445 0.103096 0.332024 0.388494 0
0.74 0.379266 0 1.31755 0.0990391 0.326014 0.379266 0
0.75 0.370209 0 1.33034 0.0951211 0.320078 0.370209 0
0.76 0.361328 0 1.34284 0.091341 0.314219 0.361328 0
0.77 0.352627 0 1.35503 0.0876973 0.308442 0.352627 0
0.78 0.344109 0 1.36692 0.0841885 0.302747 0.344109 0
0.79 0.335778 0 1.37851 0.0808124 0.297139 0.335778 0
0.8 0.327637 0 1.3898 0.0775667 0.29162 0.327637 0
0.81 0.319687 0 1.40078 0.0744492 0.286192 0.319687 0
0.82 0.31193 0 1.41146 0.0714571 0.280858 0.31193 0
0.83 0.304368 0 1.42183 0.0685879 0.275621 0.304368 0
0.84 0.297003 0 1.4319 0.0658387 0.270485 0.297003 0
0.85 0.289836 0 1.44166 0.0632068 0.265453 0.289836 0
0.86 0.282867 0 1.4511 0.0606895 0.260532 0.282867 0
0.87 0.2761 0 1.46022 0.0582841 0.255726 0.2761 0
0.88 0.269534 0 1.46901 0.055988 0.251044 0.269534 0
0.89 0.263173 0 1.47746 0.0537987 0.246498 0.263173 0
0.9 0.257017 0 1.48554 0.0517138 0.2421 0.257017 0
0.91 0.25107 0 1.49323 0.0497311 0.237869 0.25107 0
0.92 0.245335 0 1.50051 0.0478485 0.23383 0.245335 0
0.93 0.239814 0 1.50733 0.0460638 0.230014 0.239814 0
0.94 0.234509 0 1.51363 0.0443749 0.226465 0.234509 0
0.95 0.229423 0 1.51934 0.0427792 0.223238 0.229423 0
0.96 0.224553 0 1.52434 0.0412735 0.220406 0.224553 0
0.97 0.219893 0 1.5285 0.0398532 0.218063 0.219893 0
0.98 0.215429 0 1.53161 0.0385114 0.216332 0.215429 0
0.99 0.211133 0 1.53337 0.0372375 0.215368 0.211133 0
1 0.206953 0 1.53337 0.0360144 0.215368 0.206953 0
